# vtk DataFile Version 3.0
Advection Initial Condition
ASCII
DATASET UNSTRUCTURED_GRID
POINTS 2961 double
-14 -10 0.0
14 -10 0.0
14 10 0.0
-14 10 0.0
-13.5 -10 0.0
-13 -10 0.0
-12.5 -10 0.0
-12 -10 0.0
-11.5 -10 0.0
-11 -10 0.0
-10.5 -10 0.0
-10 -10 0.0
-9.5 -10 0.0
-9 -10 0.0
-8.5 -10 0.0
-8 -10 0.0
-7.5 -10 0.0
-7 -10 0.0
-6.5 -10 0.0
-6 -10 0.0
-5.5 -10 0.0
-5 -10 0.0
-4.5 -10 0.0
-4 -10 0.0
-3.5 -10 0.0
-3 -10 0.0
-2.5 -10 0.0
-2 -10 0.0
-1.5 -10 0.0
-1 -10 0.0
-0.5 -10 0.0
-6.21014e-12 -10 0.0
0.5 -10 0.0
1 -10 0.0
1.5 -10 0.0
2 -10 0.0
2.5 -10 0.0
3 -10 0.0
3.5 -10 0.0
4 -10 0.0
4.5 -10 0.0
5 -10 0.0
5.5 -10 0.0
6 -10 0.0
6.5 -10 0.0
7 -10 0.0
7.5 -10 0.0
8 -10 0.0
8.5 -10 0.0
9 -10 0.0
9.5 -10 0.0
10 -10 0.0
10.5 -10 0.0
11 -10 0.0
11.5 -10 0.0
12 -10 0.0
12.5 -10 0.0
13 -10 0.0
13.5 -10 0.0
14 -9.5 0.0
14 -9 0.0
14 -8.5 0.0
14 -8 0.0
14 -7.5 0.0
14 -7 0.0
14 -6.5 0.0
14 -6 0.0
14 -5.5 0.0
14 -5 0.0
14 -4.5 0.0
14 -4 0.0
14 -3.5 0.0
14 -3 0.0
14 -2.5 0.0
14 -2 0.0
14 -1.5 0.0
14 -1 0.0
14 -0.5 0.0
14 -1.22906e-11 0.0
14 0.5 0.0
14 1 0.0
14 1.5 0.0
14 2 0.0
14 2.5 0.0
14 3 0.0
14 3.5 0.0
14 4 0.0
14 4.5 0.0
14 5 0.0
14 5.5 0.0
14 6 0.0
14 6.5 0.0
14 7 0.0
14 7.5 0.0
14 8 0.0
14 8.5 0.0
14 9 0.0
14 9.5 0.0
13.5 10 0.0
13 10 0.0
12.5 10 0.0
12 10 0.0
11.5 10 0.0
11 10 0.0
10.5 10 0.0
10 10 0.0
9.5 10 0.0
9 10 0.0
8.5 10 0.0
8 10 0.0
7.5 10 0.0
7 10 0.0
6.5 10 0.0
6 10 0.0
5.5 10 0.0
5 10 0.0
4.5 10 0.0
4 10 0.0
3.5 10 0.0
3 10 0.0
2.5 10 0.0
2 10 0.0
1.5 10 0.0
1 10 0.0
0.5 10 0.0
6.21014e-12 10 0.0
-0.5 10 0.0
-1 10 0.0
-1.5 10 0.0
-2 10 0.0
-2.5 10 0.0
-3 10 0.0
-3.5 10 0.0
-4 10 0.0
-4.5 10 0.0
-5 10 0.0
-5.5 10 0.0
-6 10 0.0
-6.5 10 0.0
-7 10 0.0
-7.5 10 0.0
-8 10 0.0
-8.5 10 0.0
-9 10 0.0
-9.5 10 0.0
-10 10 0.0
-10.5 10 0.0
-11 10 0.0
-11.5 10 0.0
-12 10 0.0
-12.5 10 0.0
-13 10 0.0
-13.5 10 0.0
-14 9.5 0.0
-14 9 0.0
-14 8.5 0.0
-14 8 0.0
-14 7.5 0.0
-14 7 0.0
-14 6.5 0.0
-14 6 0.0
-14 5.5 0.0
-14 5 0.0
-14 4.5 0.0
-14 4 0.0
-14 3.5 0.0
-14 3 0.0
-14 2.5 0.0
-14 2 0.0
-14 1.5 0.0
-14 1 0.0
-14 0.5 0.0
-14 1.22906e-11 0.0
-14 -0.5 0.0
-14 -1 0.0
-14 -1.5 0.0
-14 -2 0.0
-14 -2.5 0.0
-14 -3 0.0
-14 -3.5 0.0
-14 -4 0.0
-14 -4.5 0.0
-14 -5 0.0
-14 -5.5 0.0
-14 -6 0.0
-14 -6.5 0.0
-14 -7 0.0
-14 -7.5 0.0
-14 -8 0.0
-14 -8.5 0.0
-14 -9 0.0
-14 -9.5 0.0
-3.55225 -0.0107579 0.0
5.20946 -1.20946 0.0
1.63773 3.72223 0.0
-7.95798 4.07709 0.0
-7.99138 -3.99138 0.0
8.03837 4.03837 0.0
0.359335 -4.14526 0.0
8.91904 -4.80496 0.0
-3.23623 5.11875 0.0
9.61848 -0.235777 0.0
-3.87055 -5.58401 0.0
4.52519 -5.62993 0.0
-9.67 -7.11056e-15 0.0
0.529278 -0.166259 0.0
4.62597 5.8884 0.0
4.78761 2.40829 0.0
-10.5896 6.47033 0.0
-10.555 -6.56012 0.0
10.4532 6.64583 0.0
-0.309932 6.63093 0.0
-6.1484 6.73086 0.0
-6.51731 1.14808 0.0
-1.53879 2.35645 0.0
-5.06972 -2.77384 0.0
10.9247 2.52978 0.0
-6.76723 -6.85986 0.0
-10.9069 2.88413 0.0
-10.8242 -2.79653 0.0
-1.09643 -6.85289 0.0
7.44506 6.9783 0.0
10.941 -7.00128 0.0
11.0442 -2.79019 0.0
1.84315 -6.99939 0.0
-2.14944 -2.64935 0.0
3.03807 -3.16609 0.0
6.94944 -7.12666 0.0
7.76655 -2.29442 0.0
-4.26316 2.58178 0.0
7.25176 1.26817 0.0
2.16195 7.21212 0.0
-7.37178 -1.31266 0.0
3.12693 0.382719 0.0
-2.5965 7.53413 0.0
-8.36921 7.5436 0.0
5.75353 -3.49955 0.0
11.7384 0.548285 0.0
-5.75586 4.43509 0.0
-4.61721 -7.69662 0.0
-11.6425 0.783919 0.0
11.8056 -4.8498 0.0
3.90868 -7.68541 0.0
11.5829 4.69131 0.0
-1.79147 -4.83131 0.0
-5.86284 -4.72197 0.0
-8.77364 -7.81877 0.0
-1.11228 4.578 0.0
-8.44543 1.8596 0.0
3.5861 4.21623 0.0
6.07551 4.23562 0.0
-12.2596 4.83211 0.0
-11.7664 -4.74416 0.0
8.99385 -7.94444 0.0
1.21237 -2.15677 0.0
-1.51437 -0.56315 0.0
5.60313 8.08263 0.0
1.48743 1.68518 0.0
-5.2797 -0.612218 0.0
-12.0868 8.10442 0.0
-12.0136 -7.9816 0.0
12.0522 8.07175 0.0
2.23886 -5.00875 0.0
-4.73781 8.12482 0.0
-12.028 -1.18697 0.0
9.14736 8.0055 0.0
-9.9927 4.65295 0.0
-9.81392 -4.63179 0.0
6.91929 -5.14361 0.0
6.80774 -0.506417 0.0
-2.76804 -8.15724 0.0
-8.3693 -5.9187 0.0
9.71643 4.70056 0.0
8.98916 2.38264 0.0
1.37225 5.71468 0.0
0.431573 -8.2021 0.0
-9.30065 -1.84921 0.0
5.42682 0.591002 0.0
12.1356 -1.32247 0.0
-7.70822 5.81554 0.0
-3.61818 -3.77794 0.0
0.695322 8.13953 0.0
2.6963 -1.49915 0.0
-6.51485 2.91633 0.0
3.8823 8.21758 0.0
-10.0718 8.20173 0.0
5.69835 -8.27475 0.0
12.2826 -8.28716 0.0
0.362518 -6.04965 0.0
2.92008 2.31228 0.0
9.29807 -3.16365 0.0
-3.52114 -1.61437 0.0
-1.02361 8.26553 0.0
-6.93764 8.48537 0.0
-0.747026 0.899004 0.0
-2.81607 3.45961 0.0
-2.92052 1.50971 0.0
-4.54886 6.22592 0.0
-4.84213 0.979709 0.0
12.5135 6.32845 0.0
-10.2815 -8.36835 0.0
-0.581893 -2.0538 0.0
-8.00409 0.163458 0.0
8.88832 6.03623 0.0
6.26741 5.86002 0.0
0.0666446 2.75961 0.0
3.02095 5.84046 0.0
-12.3828 6.33304 0.0
-12.3777 -6.37402 0.0
-6.72038 -2.90536 0.0
-1.89458 6.05581 0.0
12.3723 2.04827 0.0
-6.12136 -8.37719 0.0
6.39598 2.739 0.0
-12.4314 2.26095 0.0
9.51476 -6.32085 0.0
2.50694 -8.47509 0.0
-12.5276 -3.174 0.0
12.5888 -3.42819 0.0
12.4127 -6.3534 0.0
10.4828 -8.48904 0.0
10.1568 1.23629 0.0
-5.26638 -6.3092 0.0
9.87225 -1.6936 0.0
-10.1113 1.50336 0.0
4.27724 -4.08321 0.0
-2.60233 -6.48581 0.0
10.313 -4.32783 0.0
4.50024 -2.49643 0.0
-1.22378 -8.47894 0.0
7.47453 -8.51038 0.0
7.74537 -3.73121 0.0
7.50002 8.48432 0.0
5.51301 -6.7188 0.0
-9.38852 3.15933 0.0
3.25828 -6.44125 0.0
-0.979268 -3.57772 0.0
10.6317 8.55074 0.0
-4.10011 4.04385 0.0
6.18598 -2.14986 0.0
12.6129 3.52129 0.0
8.07353 -6.08705 0.0
1.64849 -3.60976 0.0
-9.26398 -3.29799 0.0
-10.5314 -1.16451 0.0
-7.61562 -8.61533 0.0
0.344767 4.68871 0.0
8.49105 -1.11167 0.0
-9.16078 5.84029 0.0
8.66245 0.895283 0.0
10.897 -0.599786 0.0
7.65699 5.40774 0.0
-12.6142 3.5675 0.0
-7.07748 -5.52394 0.0
4.21617 -0.719005 0.0
2.44591 8.72122 0.0
-3.39268 8.71212 0.0
4.25598 1.14665 0.0
-8.11046 -2.64543 0.0
-2.09763 0.638477 0.0
2.0225 -0.161716 0.0
-6.73871 -0.289565 0.0
10.7357 -5.7667 0.0
7.95716 2.71582 0.0
5.60578 -4.86877 0.0
3.71995 7.12218 0.0
-6.97995 4.81254 0.0
1.26893 6.93854 0.0
-6.25943 -1.78099 0.0
-12.6892 -0.186155 0.0
9.59981 3.23823 0.0
-5.56027 2.11102 0.0
-4.78368 -3.92809 0.0
-5.56714 8.74518 0.0
-3.78344 -8.74995 0.0
-3.18511 6.39762 0.0
-0.898794 -5.8036 0.0
4.85349 4.95993 0.0
2.20424 4.48327 0.0
-8.92949 8.94914 0.0
12.691 -0.213771 0.0
-2.78672 -1.02975 0.0
4.65257 -8.93668 0.0
-5.50039 5.62177 0.0
0.155678 -3.23833 0.0
-2.06885 8.79164 0.0
-3.78968 -6.7691 0.0
-12.7663 -2.07113 0.0
3.54986 -4.91287 0.0
-7.31634 6.97592 0.0
0.550171 1.00066 0.0
-9.29964 -6.73591 0.0
1.56561 -8.85461 0.0
-12.7584 8.86774 0.0
-12.6592 -8.6535 0.0
12.8225 -2.2874 0.0
-0.632183 3.54253 0.0
10.9892 3.95787 0.0
-9.42906 7.20996 0.0
4.71293 3.46708 0.0
-5.3781 3.56983 0.0
-7.87487 2.86045 0.0
-11.0918 8.76769 0.0
-8.43978 -0.914906 0.0
12.8925 8.78609 0.0
-2.42315 -3.8146 0.0
-10.7331 0.144588 0.0
-1.40821 7.12964 0.0
-10.841 3.93058 0.0
-11.0117 -3.9828 0.0
12.911 -4.49552 0.0
6.56381 8.99245 0.0
-10.8589 5.50752 0.0
-10.9717 -5.48423 0.0
10.868 5.37145 0.0
12.6592 5.14027 0.0
-7.82 -6.96604 0.0
4.93453 8.87359 0.0
-2.25862 4.46984 0.0
-9.26032 -8.85716 0.0
0.430636 -1.26635 0.0
-2.9596 -4.85248 0.0
-5.0356 -8.87621 0.0
12.8004 0.974483 0.0
-12.8548 1.21159 0.0
2.6207 1.42859 0.0
6.24079 1.60336 0.0
-12.9818 5.46637 0.0
-12.8853 -5.31255 0.0
5.47349 6.5786 0.0
-6.92944 -4.02856 0.0
6.91689 3.76824 0.0
1.65967 -5.93936 0.0
9.51501 -8.96418 0.0
-4.29181 -0.925978 0.0
8.74187 4.94153 0.0
-7.76245 8.88122 0.0
12.8724 7.24527 0.0
-11.1985 -8.79943 0.0
6.5495 -9.01043 0.0
1.93063 2.73727 0.0
8.06638 0.218989 0.0
8.44074 8.9816 0.0
-8.99668 4.79797 0.0
-12.8189 7.23235 0.0
-12.8933 -7.30447 0.0
-0.323906 5.37611 0.0
-8.7699 -4.75802 0.0
-11.1386 1.78719 0.0
4.42411 -6.75367 0.0
13.0126 -7.36924 0.0
-7.48515 1.72267 0.0
11.3277 -3.84923 0.0
-8.87407 0.814342 0.0
2.22938 -2.38252 0.0
-5.67065 -7.35279 0.0
0.550374 -7.08193 0.0
-4.51607 5.33014 0.0
4.70024 7.41885 0.0
6.48781 0.461394 0.0
6.80693 -3.29907 0.0
-10.9395 7.5798 0.0
8.1315 -7.19818 0.0
2.74395 3.65848 0.0
11.3939 1.68449 0.0
-4.7316 -5.09487 0.0
3.4143 -9.06247 0.0
-10.0403 -5.59724 0.0
8.86062 -2.13845 0.0
1.39635 -1.3093 0.0
3.45078 -2.16841 0.0
11.0745 -1.66835 0.0
-5.61914 7.68413 0.0
5.92676 -0.375638 0.0
-0.309132 8.92337 0.0
6.51243 -6.25027 0.0
6.76127 7.78004 0.0
4.57061 0.118342 0.0
11.0562 7.56638 0.0
11.3991 -9.05048 0.0
-3.40483 7.30262 0.0
8.62256 7.12762 0.0
1.56414 9.08846 0.0
-11.481 -6.96054 0.0
-0.516315 -0.163532 0.0
-0.714322 -4.47921 0.0
-3.28196 -2.69597 0.0
3.01691 -7.48188 0.0
11.453 9.04892 0.0
-5.88938 -3.48568 0.0
9.90097 -7.24247 0.0
-1.5521 -1.72771 0.0
-5.91208 0.255359 0.0
-12.9346 -4.24569 0.0
-5.35047 -1.67495 0.0
-3.86951 1.56671 0.0
-0.531063 1.93715 0.0
-0.445308 -9.0427 0.0
-11.7997 -2.32471 0.0
1.18619 -4.90869 0.0
-4.47187 9.07117 0.0
9.68901 8.96519 0.0
-6.64173 5.85179 0.0
6.72641 4.91089 0.0
-2.08166 -8.88838 0.0
2.5788 -4.01966 0.0
-1.63595 3.38993 0.0
9.57725 7.20128 0.0
12.9693 -8.96925 0.0
7.0798 -1.52687 0.0
2.17 6.32635 0.0
-0.258195 7.69239 0.0
-8.60226 6.48217 0.0
-1.85906 -5.85209 0.0
1.35356 0.411091 0.0
-7.0015 3.6814 0.0
6.23514 -4.39312 0.0
10.0006 2.22661 0.0
9.99577 5.59584 0.0
13.1544 -5.63182 0.0
-3.17441 2.42767 0.0
9.88599 -5.31514 0.0
0.459836 3.6875 0.0
-1.4533 1.36343 0.0
8.56312 3.33297 0.0
-13.0779 -1.15709 0.0
-6.12019 -5.70535 0.0
7.96299 -4.95951 0.0
8.38922 -8.96264 0.0
-10.0535 -7.38964 0.0
-11.4217 6.12803 0.0
3.3564 9.10303 0.0
11.9315 -7.29268 0.0
-2.04833 -7.33298 0.0
[...]
CELL_DATA 5728
SCALARS U_Initial double 1
LOOKUP_TABLE default
0.0857053
0.0870504
0.125128
0.0783151
0.0783107
0.103924
0.126797
0.103355
2.10496e-06
2.56656e-06
3.5339e-06
1.43909e-06
9.20055e-06
1.83055e-05
4.36408e-05
2.0868e-05
1.197e-05
1.72921e-05
3.45994e-05
6.90531e-06
6.71244e-05
6.93554e-05
9.12468e-05
3.05666e-05
0.000100914
4.35773e-05
4.58441e-05
3.29194e-05
0.000103091
0.000157135
0.000204728
0.00023016
0.00054846
0.000652936
0.000320974
0.000806374
0.00213942
0.00117816
0.000953442
0.00135143
2.9642e-05
2.1637e-05
1.21913e-05
3.82412e-05
5.06522e-05
8.33288e-05
0.000129145
7.09874e-05
4.89899e-07
7.90339e-07
1.51545e-06
1.04056e-06
0.00263799
0.00292493
0.0019041
0.00534903
0.000282283
0.000339516
0.000140445
0.000504769
0.0122799
0.00815392
0.00549037
0.00712467
0.00206185
0.00317686
0.0047856
0.00347294
0.000742913
0.000731649
0.000540056
0.00152254
0.000731103
0.000542222
0.00024801
0.000707912
1.30076e-13
1.77614e-13
9.79805e-13
9.24206e-14
6.49319e-06
1.48443e-05
2.54069e-05
1.16564e-05
0.0031948
0.00371402
0.0062207
0.00420616
0.00969288
0.00806124
0.00479888
0.00717583
3.94213e-06
7.70577e-06
6.55842e-06
1.24935e-05
0.0464301
0.0549112
0.0872267
0.0441027
0.0815431
0.0748506
0.0491029
0.091728
0.199196
0.246745
0.253372
0.286317
0.000287134
0.000259205
0.000554252
0.000167063
0.496222
0.586389
0.537193
0.644678
-5.16893e-20
1.85956e-19
-9.95658e-20
5.6729e-19
0.00361129
0.00430567
0.00407786
0.00690958
0.00873348
0.00722085
0.00765748
0.00465431
5.72073e-06
1.0203e-05
6.90647e-06
1.71403e-05
0.00143426
0.00213324
0.00119791
0.00312693
6.28607e-06
5.50582e-06
4.70048e-06
1.49568e-05
9.2391e-09
5.92281e-09
1.17548e-08
3.1789e-09
4.58896e-06
1.97311e-06
3.00556e-06
1.27756e-06
7.95389e-09
3.87175e-08
7.73227e-08
3.66966e-08
0.55953
0.626168
0.682578
0.695305
3.04005e-10
6.79556e-10
1.44935e-09
3.14497e-10
4.8749e-08
6.2384e-08
1.47631e-08
1.18127e-07
0.293195
0.25179
0.211437
0.27115
0.117561
0.12506
0.13768
0.0916016
1.32583e-05
1.33334e-05
1.32848e-05
4.19075e-05
4.59399e-09
1.93135e-09
3.68278e-09
7.97233e-10
2.47497e-13
4.62787e-13
8.51001e-13
1.78797e-12
5.54405e-11
9.68176e-11
1.74639e-10
5.22694e-11
0.0508812
0.0437254
0.0347632
0.065414
1.03041e-12
8.81464e-13
2.69041e-13
1.61637e-12
1.54979e-15
5.06639e-16
1.50579e-16
1.6872e-16
9.23023e-06
6.62271e-06
6.56139e-06
3.18362e-06
2.10403e-06
1.70796e-06
4.29654e-06
1.10288e-06
3.57447e-15
9.30163e-14
2.94904e-13
3.60341e-14
6.29194e-15
1.74292e-14
1.08468e-13
2.15895e-14
4.69501e-13
2.47669e-13
4.45629e-14
2.17715e-13
0.00807582
0.0109256
0.00796496
0.0146007
0.0169463
0.0214672
0.0328713
0.0249205
0.0621609
0.0436002
0.0478626
0.0318067
0.612767
0.726053
0.725985
0.74715
5.564e-13
1.33967e-13
6.75034e-14
1.43439e-13
1.03341e-05
2.04931e-05
3.19486e-05
4.47003e-05
4.71799e-06
8.85143e-06
1.12445e-05
1.17682e-05
0.00633062
0.0111841
0.0125988
0.0109457
2.05799e-09
2.85547e-09
7.65532e-09
1.81441e-09
0.60882
0.626018
0.73394
0.608521
8.21531e-18
1.29924e-18
2.11073e-19
1.02073e-17
1.34699e-08
2.9219e-08
4.1935e-08
1.13693e-07
1.50004e-05
3.93488e-05
6.70986e-05
2.65294e-05
3.81035e-05
2.20152e-05
1.41017e-05
1.12645e-05
2.63506e-08
2.71493e-08
1.19679e-07
1.50971e-08
0.0388978
0.0384438
0.0235931
0.0405887
0.0139691
0.023141
0.0189059
0.0288879
0.000621151
0.00133295
0.00178833
0.00118958
0.00399855
0.0027851
0.0019005
0.00192347
0.000310581
0.000386329
0.000510899
0.000173582
0.000676258
0.000294614
0.000256557
0.000216124
0.000153672
0.000108601
0.000153228
4.53331e-05
5.99254e-05
7.73836e-05
3.03206e-05
0.000105855
0.344232
0.373257
0.312634
0.439062
0.531655
0.586166
0.684408
0.596951
2.63871e-06
3.81248e-06
7.98393e-06
3.29328e-06
3.02491e-08
5.75525e-08
1.0768e-07
2.07788e-08
2.12936e-07
1.24244e-07
3.74999e-08
1.91333e-07
0.000546111
0.000688916
0.00171427
0.000734526
0.00169742
0.00164434
0.000762974
0.00183087
1.27941e-07
3.57795e-07
4.49212e-07
3.55064e-07
0.054423
0.0449619
0.0291244
0.0409261
2.47735e-14
1.15759e-14
1.88383e-15
8.5936e-14
0.0742025
0.0741169
0.0880562
0.0574355
1.23626e-05
1.04795e-05
8.8007e-06
3.34378e-05
4.80696e-28
4.75053e-27
4.75483e-27
1.03748e-24
1.03748e-24
4.75053e-27
4.75483e-27
4.80696e-28
3.69032e-06
4.15981e-06
6.56667e-06
2.82369e-06
1.32059e-05
3.21085e-05
3.22464e-05
4.27429e-05
0.00231052
0.00302338
0.00465523
0.00161338
1.59841e-16
2.71738e-15
2.8344e-14
4.30977e-15
7.00297e-06
8.75894e-06
1.17316e-05
4.52204e-06
0.0393425
0.0226325
0.022958
0.0216881
0.00107495
0.000516954
0.000409869
0.000427886
7.68804e-05
0.000160927
0.000188815
0.000191652
0.00410831
0.00529098
0.00544649
0.00908878
2.92822e-11
1.41067e-11
2.83585e-11
6.50363e-12
0.000175981
0.000333741
0.000398554
0.00040874
0.011072
0.00841486
0.00616952
0.0147146
1.42923e-13
2.99613e-13
1.98116e-13
1.01577e-12
0.0633038
0.0551721
0.0427431
0.0718166
2.54125e-11
5.74136e-11
2.3223e-11
1.27265e-10
6.55437e-10
2.2303e-10
4.14499e-10
8.21154e-11
1.7352e-05
2.53094e-05
3.66328e-05
4.31364e-05
0.00304413
0.00445513
0.00319115
0.00618763
1.44425e-05
4.1222e-05
3.97076e-05
4.79803e-05
0.000202997
0.000271157
0.000165496
0.00037639
0.000774669
0.000505115
0.000597498
0.000265319
0.00919241
0.00657149
0.0043519
0.00869775
0.0304776
0.0382596
0.0330064
0.0503744
0.000522835
0.000509962
0.00054182
0.000175256
0.440151
0.367509
0.301878
0.326371
0.000306873
0.000304956
0.00053071
0.000180321
0.383058
0.446664
0.535016
0.406954
0.463936
0.495377
0.399997
0.559032
0.479568
0.363942
0.390631
0.332277
0.000777864
0.000949234
0.00131844
0.000428935
3.64335e-05
5.60269e-05
4.56533e-05
9.86545e-05
0.000135441
0.000162326
0.000255228
0.000118584
0.000682503
0.000967497
0.00104321
0.00194527
1.15754e-20
1.208e-19
2.58699e-21
1.59511e-18
5.97642e-20
3.70669e-21
3.35118e-23
3.50526e-22
0.000143005
7.86344e-05
4.77496e-05
0.000118538
0.0145142
0.0191581
0.0135634
0.0283534
4.40512e-18
6.40857e-17
5.24928e-16
6.74163e-16
0.000914131
0.000919162
0.0019077
0.000776984
2.61548e-20
1.82402e-19
1.48283e-17
7.03648e-19
2.89695e-19
1.47016e-18
4.67654e-18
1.24412e-16
0.928526
0.928027
0.902242
0.931543
0.000137484
9.01485e-05
6.65872e-05
5.62067e-05
5.82038e-07
8.72864e-07
5.13804e-07
2.12287e-06
2.16976e-05
3.72239e-05
5.11482e-05
9.64845e-05
1.47249e-07
3.24325e-07
2.46949e-07
5.83861e-07
0.41612
0.487922
0.517894
0.574956
0.914863
0.893978
0.856835
0.865687
4.55153e-11
2.8445e-11
3.98672e-11
1.59642e-11
0.656433
0.574288
0.538148
0.571661
0.366297
0.454886
0.472092
0.452778
2.2021e-17
6.55835e-17
1.74877e-16
4.58658e-17
0.010447
0.00926901
0.00938468
0.00501325
0.00526507
0.00622888
0.00432407
0.00812463
1.70055e-12
4.07666e-13
3.40131e-13
1.23944e-13
0.00359923
0.00256179
0.00446879
0.00174052
2.97316e-06
3.91351e-06
5.14146e-06
1.11672e-05
6.55445e-21
3.29451e-19
1.30259e-20
5.20308e-18
1.78154e-19
4.00991e-18
8.9932e-20
5.1651e-17
0.0699496
0.101908
0.118064
0.0905833
0.40714
0.355952
0.344207
0.31337
1.22896e-09
7.86573e-10
2.41896e-09
1.02581e-09
0.0162057
0.0122936
0.0166451
0.00913792
2.36923e-08
1.06943e-08
5.63564e-09
7.02663e-09
2.19892e-16
6.29925e-16
8.20764e-16
2.65913e-15
0.00474029
0.00608445
0.00450703
0.00981292
5.89743e-09
3.25018e-09
1.85073e-09
2.03931e-09
3.17661e-10
5.77816e-10
1.10574e-09
2.0564e-10
5.61787e-10
4.38199e-10
2.60745e-10
1.47785e-09
0.000348321
0.000256846
0.000115292
0.000250072
1.70435e-14
7.90285e-14
3.50231e-13
7.68884e-13
0.00285384
0.00210142
0.00178524
0.00135538
6.13256e-13
6.74259e-13
2.42938e-13
1.44438e-12
1.18232e-12
2.53199e-13
3.37464e-13
1.12094e-13
1.05153e-15
6.50971e-16
2.16511e-16
2.10583e-15
1.40262e-07
9.70686e-08
3.86872e-08
8.5622e-08
5.50756e-11
9.37541e-11
5.3838e-11
1.76466e-10
0.00130649
0.000725236
0.000458262
0.000987355
3.47241e-05
4.91387e-05
6.99821e-05
6.58663e-05
1.8227e-07
8.09455e-08
1.00957e-07
5.28777e-08
3.87698e-06
6.73488e-06
3.19474e-06
1.26548e-05
5.98398e-06
5.59377e-06
1.36759e-05
3.47028e-06
0.662661
0.739144
0.799709
0.77145
0.123425
0.0841879
0.0945915
0.0699752
1.88047e-05
1.04692e-05
5.92597e-06
1.04605e-05
0.000152393
0.000101156
0.000107953
5.96865e-05
2.44317e-05
3.86101e-05
3.84876e-05
7.00694e-05
8.14264e-12
1.5061e-11
2.7099e-11
2.89341e-11
0.00796589
0.00572443
0.00424119
0.0051195
0.0210176
0.0358299
0.0349289
0.0392373
0.0940141
0.0669126
0.0691482
0.06042
9.22997e-05
0.000135177
9.727e-05
0.00019647
0.000206887
0.000388698
0.00039606
0.000475716
1.10953e-07
2.23576e-07
9.34629e-08
4.46198e-07
0.00177435
0.00107292
0.000641717
0.00149568
9.98955e-07
1.47555e-06
2.5901e-06
1.14503e-06
3.69643e-07
4.6003e-07
5.70221e-07
7.35376e-07
9.6612e-05
3.74141e-05
2.9784e-05
3.37207e-05
1.53754e-08
6.31999e-09
1.09507e-08
2.9288e-09
5.3151e-10
1.77127e-09
9.91077e-10
3.91887e-09
1.15866e-13
2.68304e-14
5.63512e-15
3.89717e-15
0.000131025
9.30718e-05
0.000136566
6.55632e-05
0.0426897
0.0483478
0.0637276
0.0539011
0.0951209
0.0845294
0.0609946
0.0742672
0.00172157
0.000965104
0.000939671
0.000783357
0.184356
0.202596
0.288699
0.21164
0.000116242
5.51278e-05
4.036e-05
6.19783e-05
7.16718e-05
0.000102204
0.000166078
7.8835e-05
0.181804
0.188887
0.167908
0.238494
7.48213e-08
1.46014e-07
3.12756e-07
2.76162e-07
0.00138717
0.000878796
0.000836613
0.000727516
0.459579
0.51128
0.569651
0.45019
0.000140256
0.000205366
0.000301178
0.000232515
0.0130465
0.0154299
0.0222303
0.0114234
0.0257096
0.0230353
0.0129193
0.0251535
2.36885e-06
5.28926e-06
8.75967e-06
4.15873e-06
1.47995e-05
1.50648e-05
9.80405e-06
3.22077e-05
2.43832e-13
3.2717e-14
7.95507e-15
4.59685e-15
0.00677294
0.0051418
0.00337783
0.00389784
9.09062e-13
4.1411e-13
7.19749e-14
2.50766e-13
0.0109164
0.0150488
0.0197515
0.0220564
2.44293e-11
8.42034e-12
5.56736e-12
9.71078e-12
0.0783792
0.0922103
0.101024
0.130865
0.00187032
0.001427
0.00113106
0.000754563
0.145906
0.12964
0.101281
0.134827
8.78639e-07
1.33309e-06
3.17657e-06
1.96093e-06
7.20529e-06
5.13714e-06
2.77831e-06
4.54507e-06
0.265411
0.180474
0.159548
0.191536
0.00368555
0.00220811
0.00127089
0.00173178
0.613382
0.708782
0.671503
0.754648
5.25415e-06
3.33362e-06
1.67863e-06
2.15826e-06
4.50288e-12
2.02752e-12
8.58069e-13
4.05325e-12
1.92645e-07
3.51437e-07
7.14615e-07
2.94633e-07
0.00098562
0.0013804
0.00199034
0.00174093
8.3818e-06
6.48164e-06
1.4567e-05
3.51765e-06
2.55128e-05
3.3093e-05
2.5134e-05
6.6729e-05
0.000107299
8.24776e-05
8.4642e-05
3.21291e-05
9.68999e-08
1.53197e-07
2.69908e-07
1.26679e-07
8.94989e-06
3.76028e-06
4.99265e-06
2.62502e-06
7.799e-06
4.79201e-06
2.27791e-06
3.64134e-06
1.86169e-05
2.94183e-05
4.33343e-05
4.55951e-05
9.91275e-08
1.39385e-07
1.73314e-07
2.72871e-07
0.000695105
0.000386668
0.000247519
0.000325351
1.51142e-05
1.22966e-05
6.18102e-06
1.11633e-05
0.00143017
0.000876796
0.000992512
0.000525293
7.31942e-12
1.95376e-11
5.06205e-11
3.56745e-11
0.00330362
0.00218405
0.00197891
0.00190553
4.55018e-13
5.85805e-13
1.05515e-13
1.25725e-12
7.51598e-10
2.71912e-10
8.64649e-11
2.53562e-10
2.11393e-07
3.8633e-07
8.36959e-07
5.24256e-07
0.00213874
0.00248771
0.00440222
0.00174699
1.7339e-19
4.57114e-18
9.93194e-20
6.48545e-17
2.57253e-12
6.45925e-12
1.26188e-11
3.36436e-12
0.00285633
0.00191564
0.0024824
0.00146118
0.0381954
0.0335333
0.05127
0.0285594
6.38223e-05
0.000142007
0.000141477
0.000187739
1.64221e-09
2.56964e-09
3.66523e-09
4.80607e-09
1.361e-06
1.17826e-06
7.72946e-07
2.21122e-06
1.72505e-07
2.27156e-07
2.93046e-07
5.78806e-07
9.29096e-13
1.74771e-12
1.096e-12
3.54717e-12
0.000203276
0.000111203
0.000110025
6.95567e-05
1.85137e-07
6.0246e-07
9.59345e-07
3.72166e-07
8.69604e-06
1.78562e-05
2.56332e-05
1.96287e-05
0.00570567
0.00401673
0.0027826
0.00570519
8.98329e-21
3.79326e-19
7.5008e-21
7.84747e-18
0.0054962
0.00402642
0.00235317
0.00540905
0.0163031
0.0124564
0.0112861
0.00935647
4.55708e-17
4.89185e-18
7.9464e-19
3.51348e-19
2.22497e-16
1.32416e-17
1.59156e-18
1.6057e-17
0.102411
0.0797143
0.0840396
0.0658331
0.337169
0.280608
0.230442
0.210961
0.120141
0.147732
0.175576
0.19003
0.0406115
0.0431191
0.0527894
0.0309758
8.55016e-07
3.76705e-07
1.82007e-07
7.09003e-07
0.000241336
0.000186771
0.00010183
0.000215512
0.0006109
0.000515034
0.000303613
0.000439472
6.40259e-19
7.07441e-19
6.03416e-20
5.95579e-18
6.39444e-09
3.38063e-09
3.89896e-09
1.42445e-09
5.28169e-10
9.25472e-10
7.44174e-10
2.0541e-09
3.54778e-16
1.26893e-16
3.66153e-17
6.69225e-17
0.0236008
0.0202073
0.0171931
0.0128778
0.0866538
0.0840049
0.0812659
0.0512973
0.00288468
0.00209432
0.00156988
0.00264693
0.000495477
0.00114693
0.00104604
0.00155393
0.00262474
0.00320558
0.00234358
0.00514525
0.00116765
0.00104707
0.00142381
0.000661755
2.35015e-10
1.40387e-10
7.43028e-11
4.22076e-10
2.97428e-19
4.68297e-17
6.31009e-16
6.38557e-18
5.3767e-05
6.88647e-05
0.000158653
5.5875e-05
3.16752e-10
2.98186e-10
1.12828e-10
7.89516e-10
0.00458597
0.00378325
0.00622539
0.00286193
9.13377e-16
1.9118e-15
7.058e-15
2.35977e-16
1.48548e-15
1.44492e-15
3.57755e-16
9.21362e-15
0.000939002
0.000607797
0.00043935
0.000802235
0.77324
0.805755
0.830829
0.863899
2.42027e-16
3.16313e-17
1.7037e-17
3.7329e-17
0.00016471
0.00010015
0.0001397
6.571e-05
0.00017055
0.000161852
0.000360692
0.000124071
2.31461e-09
3.60253e-09
5.54867e-09
2.78241e-09
3.79888e-08
6.88779e-08
4.13768e-08
1.6083e-07
6.25875e-11
7.98569e-11
1.10034e-10
5.55942e-11
0.414082
0.342481
0.343045
0.285231
0.201386
0.24492
0.236547
0.288351
0.00627313
0.00885281
0.00656511
0.0121325
1.26572e-07
8.27433e-08
5.34325e-08
2.66362e-07
1.20933e-09
7.0201e-10
5.14784e-10
1.84458e-10
0.00786329
0.00756533
0.0139801
0.00607582
9.92405e-08
1.27639e-07
2.3459e-07
6.26206e-08
0.000165945
0.000146733
5.81822e-05
0.000166969
5.83419e-05
6.77078e-05
0.000142727
4.90996e-05
0.392258
0.43145
0.478942
0.383055
0.000486546
0.000705813
0.00103824
0.00044632
7.83614e-13
1.4576e-13
6.09003e-13
3.42524e-14
2.45576e-09
1.6534e-09
9.46585e-10
2.87812e-09
3.66676e-20
4.12142e-19
5.24615e-20
2.84281e-18
3.63323e-06
2.84335e-06
2.21187e-06
9.88933e-06
1.02126e-05
1.6172e-05
2.52446e-05
6.81404e-06
0.415124
0.356389
0.263382
0.345731
0.0214705
0.0193199
0.013214
0.0229979
0.000346863
0.000156805
0.000153042
0.000115742
0.0306278
0.0258412
0.0279921
0.0161045
0.0201189
0.0131456
0.0162735
0.00963543
1.44492e-16
3.4774e-17
3.68712e-18
5.93948e-17
3.58028e-16
1.00094e-16
3.9279e-16
1.89566e-17
2.96762e-06
1.18796e-06
9.33696e-07
1.11703e-06
0.724034
0.665045
0.614862
0.695687
1.39513e-12
6.96314e-13
2.60887e-13
1.57458e-12
4.38628e-13
7.04985e-14
6.31562e-14
4.10815e-14
1.21277e-10
2.54467e-10
4.61272e-10
4.94318e-10
3.0319e-06
2.24935e-06
2.04927e-06
9.84248e-07
0.0553563
0.0412626
0.0277638
0.0360532
1.20846e-10
5.03306e-11
1.7967e-11
3.84678e-11
2.37706e-12
8.15966e-12
2.01151e-11
1.35258e-11
3.97092e-09
2.77155e-09
2.35941e-09
1.36226e-09
5.21876e-10
7.89536e-10
9.57963e-10
1.63336e-09
0.197435
0.229162
0.280599
0.214733
0.0156556
0.0167032
0.0267599
0.0150013
3.00156e-07
4.52468e-07
6.70398e-07
1.47302e-06
1.1219e-16
1.48518e-17
9.39937e-19
2.41431e-17
1.87076e-16
2.46732e-17
7.28677e-18
6.9258e-19
4.12085e-06
7.3282e-06
1.34051e-05
3.75049e-06
1.34315e-05
1.08965e-05
5.88965e-06
2.16852e-05
5.69735e-10
1.01419e-09
1.48643e-09
1.81209e-09
8.62967e-11
3.06176e-11
1.5786e-11
1.30718e-11
2.07752e-12
5.4821e-12
4.48391e-12
1.59659e-11
0.0170989
0.027581
0.0298528
0.0292523
4.07691e-09
2.11269e-09
1.0803e-09
9.28566e-10
0.0672639
0.0717984
0.0706555
0.110091
3.98595e-06
4.45124e-06
4.94051e-06
1.07526e-05
0.0104098
0.0121127
0.0158404
0.00737298
0.00130277
0.000893002
0.00128521
0.000583112
0.000235182
0.000256112
0.000114141
0.000338051
1.12519e-12
4.73793e-13
2.82749e-13
1.84623e-13
1.48695e-05
1.0747e-05
6.17834e-06
1.42485e-05
0.000228084
0.000140612
0.000129304
0.000110475
0.016961
0.0208795
0.0314564
0.0160608
4.15923e-11
1.12183e-10
5.01783e-11
2.51983e-10
3.61423e-07
7.56233e-07
1.25166e-06
6.12229e-07
5.10091e-06
2.27732e-06
1.2937e-06
2.55598e-06
0.00475493
0.00288709
0.00292268
0.00175115
0.0038402
0.00248817
0.00171314
0.00327447
0.010003
0.0117955
0.0199826
0.011439
0.0212847
0.0237802
0.0302765
0.0148481
0.0025825
0.00271242
0.00145147
0.00348582
4.19207e-09
8.7644e-09
7.41049e-09
1.3822e-08
2.50038e-10
1.46849e-10
1.8386e-10
7.90649e-11
0.0377519
0.0247715
0.0306982
0.0195422
0.00362895
0.00307794
0.00278045
0.00207075
0.0010675
0.00153274
0.00175154
0.00225277
6.44243e-16
7.46508e-16
1.11735e-16
1.81632e-15
8.2247e-17
4.39237e-18
1.00504e-17
1.63677e-18
0.0212929
0.0271327
0.0337914
0.0219177
1.68764e-25
1.53152e-23
2.0534e-25
6.47676e-22
5.93658e-20
-4.50051e-21
2.08338e-22
9.18924e-20
2.73624e-11
4.73754e-11
4.6046e-11
1.04129e-10
1.09054e-06
2.86248e-06
2.95074e-06
3.43671e-06
4.39502e-06
5.8212e-06
2.41159e-06
9.97755e-06
2.62583e-16
4.0894e-16
1.18612e-15
4.62808e-17
1.95732e-05
4.09705e-05
3.29897e-05
6.29634e-05
2.46469e-05
3.09943e-05
5.30996e-05
2.48394e-05
9.70064e-07
1.85359e-06
3.02233e-06
3.62068e-06
0.355695
0.345175
0.327702
0.456879
0.357993
0.380186
0.441073
0.311008
0.0597674
0.0620595
0.0774772
0.056011
0.0570634
0.0704176
0.0929087
0.0718251
0.1289
0.110996
0.084465
0.108733
4.62301e-06
1.18521e-05
1.25948e-05
1.44739e-05
1.51616e-05
2.17118e-05
1.18473e-05
4.28952e-05
1.78267e-05
2.3122e-05
1.16771e-05
3.50503e-05
1.05988e-10
1.42126e-10
2.95545e-10
7.57564e-11
0.000179662
0.000144746
9.07924e-05
0.000273875
0.000168693
0.000167448
0.000253976
8.7646e-05
8.6116e-05
0.000111049
0.000196286
9.02746e-05
3.52697e-06
6.63649e-06
9.41214e-06
5.81692e-06
0.002074
0.00139256
0.000998225
0.000875687
0.0880226
0.0642158
0.0525422
0.0654402
0.00691016
0.00646205
0.00511596
0.00961451
0.000226966
0.000249993
0.000167824
0.000515885
0.567029
0.546911
0.489727
0.617025
1.59821e-09
4.0025e-10
2.43289e-10
5.16131e-10
2.83507e-10
1.97881e-10
4.64827e-10
8.54745e-11
0.000260571
0.000421154
0.000325361
0.000632574
0.00284908
0.00230212
0.00137507
0.00240031
0.00158304
0.00169488
0.00130467
0.0026976
1.06977e-27
9.38644e-27
6.5712e-24
5.99517e-26
9.13829e-26
3.75415e-24
7.96384e-23
7.14657e-23
8.65957e-08
1.782e-07
3.75731e-07
2.72187e-07
0.00824707
0.0121798
0.0120261
0.0126186
2.16258e-07
3.82838e-07
5.88621e-07
7.59069e-07
1.2665e-12
7.10215e-13
1.68838e-12
3.66996e-13
8.80434e-05
6.11806e-05
3.52877e-05
6.71156e-05
4.6198e-13
1.14783e-13
2.24194e-14
1.09694e-13
0.000376901
0.000579505
0.00032998
0.000907021
1.39809e-08
7.38979e-09
1.00824e-08
3.80667e-09
0.000585545
0.00131975
0.00102343
0.00189273
0.00308123
0.00217678
0.00286336
0.0015622