# vtk DataFile Version 3.0
Advection Initial Condition
ASCII
DATASET UNSTRUCTURED_GRID
POINTS 2961 double
-14 -10 0.0
14 -10 0.0
14 10 0.0
-14 10 0.0
-13.5 -10 0.0
-13 -10 0.0
-12.5 -10 0.0
-12 -10 0.0
-11.5 -10 0.0
-11 -10 0.0
-10.5 -10 0.0
-10 -10 0.0
-9.5 -10 0.0
-9 -10 0.0
-8.5 -10 0.0
-8 -10 0.0
-7.5 -10 0.0
-7 -10 0.0
-6.5 -10 0.0
-6 -10 0.0
-5.5 -10 0.0
-5 -10 0.0
-4.5 -10 0.0
-4 -10 0.0
-3.5 -10 0.0
-3 -10 0.0
-2.5 -10 0.0
-2 -10 0.0
-1.5 -10 0.0
-1 -10 0.0
-0.5 -10 0.0
-6.21014e-12 -10 0.0
0.5 -10 0.0
1 -10 0.0
1.5 -10 0.0
2 -10 0.0
2.5 -10 0.0
3 -10 0.0
3.5 -10 0.0
4 -10 0.0
4.5 -10 0.0
5 -10 0.0
5.5 -10 0.0
6 -10 0.0
6.5 -10 0.0
7 -10 0.0
7.5 -10 0.0
8 -10 0.0
8.5 -10 0.0
9 -10 0.0
9.5 -10 0.0
10 -10 0.0
10.5 -10 0.0
11 -10 0.0
11.5 -10 0.0
12 -10 0.0
12.5 -10 0.0
13 -10 0.0
13.5 -10 0.0
14 -9.5 0.0
14 -9 0.0
14 -8.5 0.0
14 -8 0.0
14 -7.5 0.0
14 -7 0.0
14 -6.5 0.0
14 -6 0.0
14 -5.5 0.0
14 -5 0.0
14 -4.5 0.0
14 -4 0.0
14 -3.5 0.0
14 -3 0.0
14 -2.5 0.0
14 -2 0.0
14 -1.5 0.0
14 -1 0.0
14 -0.5 0.0
14 -1.22906e-11 0.0
14 0.5 0.0
14 1 0.0
14 1.5 0.0
14 2 0.0
14 2.5 0.0
14 3 0.0
14 3.5 0.0
14 4 0.0
14 4.5 0.0
14 5 0.0
14 5.5 0.0
14 6 0.0
14 6.5 0.0
14 7 0.0
14 7.5 0.0
14 8 0.0
14 8.5 0.0
14 9 0.0
14 9.5 0.0
13.5 10 0.0
13 10 0.0
12.5 10 0.0
12 10 0.0
11.5 10 0.0
11 10 0.0
10.5 10 0.0
10 10 0.0
9.5 10 0.0
9 10 0.0
8.5 10 0.0
8 10 0.0
7.5 10 0.0
7 10 0.0
6.5 10 0.0
6 10 0.0
5.5 10 0.0
5 10 0.0
4.5 10 0.0
4 10 0.0
3.5 10 0.0
3 10 0.0
2.5 10 0.0
2 10 0.0
1.5 10 0.0
1 10 0.0
0.5 10 0.0
6.21014e-12 10 0.0
-0.5 10 0.0
-1 10 0.0
-1.5 10 0.0
-2 10 0.0
-2.5 10 0.0
-3 10 0.0
-3.5 10 0.0
-4 10 0.0
-4.5 10 0.0
-5 10 0.0
-5.5 10 0.0
-6 10 0.0
-6.5 10 0.0
-7 10 0.0
-7.5 10 0.0
-8 10 0.0
-8.5 10 0.0
-9 10 0.0
-9.5 10 0.0
-10 10 0.0
-10.5 10 0.0
-11 10 0.0
-11.5 10 0.0
-12 10 0.0
-12.5 10 0.0
-13 10 0.0
-13.5 10 0.0
-14 9.5 0.0
-14 9 0.0
-14 8.5 0.0
-14 8 0.0
-14 7.5 0.0
-14 7 0.0
-14 6.5 0.0
-14 6 0.0
-14 5.5 0.0
-14 5 0.0
-14 4.5 0.0
-14 4 0.0
-14 3.5 0.0
-14 3 0.0
-14 2.5 0.0
-14 2 0.0
-14 1.5 0.0
-14 1 0.0
-14 0.5 0.0
-14 1.22906e-11 0.0
-14 -0.5 0.0
-14 -1 0.0
-14 -1.5 0.0
-14 -2 0.0
-14 -2.5 0.0
-14 -3 0.0
-14 -3.5 0.0
-14 -4 0.0
-14 -4.5 0.0
-14 -5 0.0
-14 -5.5 0.0
-14 -6 0.0
-14 -6.5 0.0
-14 -7 0.0
-14 -7.5 0.0
-14 -8 0.0
-14 -8.5 0.0
-14 -9 0.0
-14 -9.5 0.0
-3.55225 -0.0107579 0.0
5.20946 -1.20946 0.0
1.63773 3.72223 0.0
-7.95798 4.07709 0.0
-7.99138 -3.99138 0.0
8.03837 4.03837 0.0
0.359335 -4.14526 0.0
8.91904 -4.80496 0.0
-3.23623 5.11875 0.0
9.61848 -0.235777 0.0
-3.87055 -5.58401 0.0
4.52519 -5.62993 0.0
-9.67 -7.11056e-15 0.0
0.529278 -0.166259 0.0
4.62597 5.8884 0.0
4.78761 2.40829 0.0
-10.5896 6.47033 0.0
-10.555 -6.56012 0.0
10.4532 6.64583 0.0
-0.309932 6.63093 0.0
-6.1484 6.73086 0.0
-6.51731 1.14808 0.0
-1.53879 2.35645 0.0
-5.06972 -2.77384 0.0
10.9247 2.52978 0.0
-6.76723 -6.85986 0.0
-10.9069 2.88413 0.0
-10.8242 -2.79653 0.0
-1.09643 -6.85289 0.0
7.44506 6.9783 0.0
10.941 -7.00128 0.0
11.0442 -2.79019 0.0
1.84315 -6.99939 0.0
-2.14944 -2.64935 0.0
3.03807 -3.16609 0.0
6.94944 -7.12666 0.0
7.76655 -2.29442 0.0
-4.26316 2.58178 0.0
7.25176 1.26817 0.0
2.16195 7.21212 0.0
-7.37178 -1.31266 0.0
3.12693 0.382719 0.0
-2.5965 7.53413 0.0
-8.36921 7.5436 0.0
5.75353 -3.49955 0.0
11.7384 0.548285 0.0
-5.75586 4.43509 0.0
-4.61721 -7.69662 0.0
-11.6425 0.783919 0.0
11.8056 -4.8498 0.0
3.90868 -7.68541 0.0
11.5829 4.69131 0.0
-1.79147 -4.83131 0.0
-5.86284 -4.72197 0.0
-8.77364 -7.81877 0.0
-1.11228 4.578 0.0
-8.44543 1.8596 0.0
3.5861 4.21623 0.0
6.07551 4.23562 0.0
-12.2596 4.83211 0.0
-11.7664 -4.74416 0.0
8.99385 -7.94444 0.0
1.21237 -2.15677 0.0
-1.51437 -0.56315 0.0
5.60313 8.08263 0.0
1.48743 1.68518 0.0
-5.2797 -0.612218 0.0
-12.0868 8.10442 0.0
-12.0136 -7.9816 0.0
12.0522 8.07175 0.0
2.23886 -5.00875 0.0
-4.73781 8.12482 0.0
-12.028 -1.18697 0.0
9.14736 8.0055 0.0
-9.9927 4.65295 0.0
-9.81392 -4.63179 0.0
6.91929 -5.14361 0.0
6.80774 -0.506417 0.0
-2.76804 -8.15724 0.0
-8.3693 -5.9187 0.0
9.71643 4.70056 0.0
8.98916 2.38264 0.0
1.37225 5.71468 0.0
0.431573 -8.2021 0.0
-9.30065 -1.84921 0.0
5.42682 0.591002 0.0
12.1356 -1.32247 0.0
-7.70822 5.81554 0.0
-3.61818 -3.77794 0.0
0.695322 8.13953 0.0
2.6963 -1.49915 0.0
-6.51485 2.91633 0.0
3.8823 8.21758 0.0
-10.0718 8.20173 0.0
5.69835 -8.27475 0.0
12.2826 -8.28716 0.0
0.362518 -6.04965 0.0
2.92008 2.31228 0.0
9.29807 -3.16365 0.0
-3.52114 -1.61437 0.0
-1.02361 8.26553 0.0
-6.93764 8.48537 0.0
-0.747026 0.899004 0.0
-2.81607 3.45961 0.0
-2.92052 1.50971 0.0
-4.54886 6.22592 0.0
-4.84213 0.979709 0.0
12.5135 6.32845 0.0
-10.2815 -8.36835 0.0
-0.581893 -2.0538 0.0
-8.00409 0.163458 0.0
8.88832 6.03623 0.0
6.26741 5.86002 0.0
0.0666446 2.75961 0.0
3.02095 5.84046 0.0
-12.3828 6.33304 0.0
-12.3777 -6.37402 0.0
-6.72038 -2.90536 0.0
-1.89458 6.05581 0.0
12.3723 2.04827 0.0
-6.12136 -8.37719 0.0
6.39598 2.739 0.0
-12.4314 2.26095 0.0
9.51476 -6.32085 0.0
2.50694 -8.47509 0.0
-12.5276 -3.174 0.0
12.5888 -3.42819 0.0
12.4127 -6.3534 0.0
10.4828 -8.48904 0.0
10.1568 1.23629 0.0
-5.26638 -6.3092 0.0
9.87225 -1.6936 0.0
-10.1113 1.50336 0.0
4.27724 -4.08321 0.0
-2.60233 -6.48581 0.0
10.313 -4.32783 0.0
4.50024 -2.49643 0.0
-1.22378 -8.47894 0.0
7.47453 -8.51038 0.0
7.74537 -3.73121 0.0
7.50002 8.48432 0.0
5.51301 -6.7188 0.0
-9.38852 3.15933 0.0
3.25828 -6.44125 0.0
-0.979268 -3.57772 0.0
10.6317 8.55074 0.0
-4.10011 4.04385 0.0
6.18598 -2.14986 0.0
12.6129 3.52129 0.0
8.07353 -6.08705 0.0
1.64849 -3.60976 0.0
-9.26398 -3.29799 0.0
-10.5314 -1.16451 0.0
-7.61562 -8.61533 0.0
0.344767 4.68871 0.0
8.49105 -1.11167 0.0
-9.16078 5.84029 0.0
8.66245 0.895283 0.0
10.897 -0.599786 0.0
7.65699 5.40774 0.0
-12.6142 3.5675 0.0
-7.07748 -5.52394 0.0
4.21617 -0.719005 0.0
2.44591 8.72122 0.0
-3.39268 8.71212 0.0
4.25598 1.14665 0.0
-8.11046 -2.64543 0.0
-2.09763 0.638477 0.0
2.0225 -0.161716 0.0
-6.73871 -0.289565 0.0
10.7357 -5.7667 0.0
7.95716 2.71582 0.0
5.60578 -4.86877 0.0
3.71995 7.12218 0.0
-6.97995 4.81254 0.0
1.26893 6.93854 0.0
-6.25943 -1.78099 0.0
-12.6892 -0.186155 0.0
9.59981 3.23823 0.0
-5.56027 2.11102 0.0
-4.78368 -3.92809 0.0
-5.56714 8.74518 0.0
-3.78344 -8.74995 0.0
-3.18511 6.39762 0.0
-0.898794 -5.8036 0.0
4.85349 4.95993 0.0
2.20424 4.48327 0.0
-8.92949 8.94914 0.0
12.691 -0.213771 0.0
-2.78672 -1.02975 0.0
4.65257 -8.93668 0.0
-5.50039 5.62177 0.0
0.155678 -3.23833 0.0
-2.06885 8.79164 0.0
-3.78968 -6.7691 0.0
-12.7663 -2.07113 0.0
3.54986 -4.91287 0.0
-7.31634 6.97592 0.0
0.550171 1.00066 0.0
-9.29964 -6.73591 0.0
1.56561 -8.85461 0.0
-12.7584 8.86774 0.0
-12.6592 -8.6535 0.0
12.8225 -2.2874 0.0
-0.632183 3.54253 0.0
10.9892 3.95787 0.0
-9.42906 7.20996 0.0
4.71293 3.46708 0.0
-5.3781 3.56983 0.0
-7.87487 2.86045 0.0
-11.0918 8.76769 0.0
-8.43978 -0.914906 0.0
12.8925 8.78609 0.0
-2.42315 -3.8146 0.0
-10.7331 0.144588 0.0
-1.40821 7.12964 0.0
-10.841 3.93058 0.0
-11.0117 -3.9828 0.0
12.911 -4.49552 0.0
6.56381 8.99245 0.0
-10.8589 5.50752 0.0
-10.9717 -5.48423 0.0
10.868 5.37145 0.0
12.6592 5.14027 0.0
-7.82 -6.96604 0.0
4.93453 8.87359 0.0
-2.25862 4.46984 0.0
-9.26032 -8.85716 0.0
0.430636 -1.26635 0.0
-2.9596 -4.85248 0.0
-5.0356 -8.87621 0.0
12.8004 0.974483 0.0
-12.8548 1.21159 0.0
2.6207 1.42859 0.0
6.24079 1.60336 0.0
-12.9818 5.46637 0.0
-12.8853 -5.31255 0.0
5.47349 6.5786 0.0
-6.92944 -4.02856 0.0
6.91689 3.76824 0.0
1.65967 -5.93936 0.0
9.51501 -8.96418 0.0
-4.29181 -0.925978 0.0
8.74187 4.94153 0.0
-7.76245 8.88122 0.0
12.8724 7.24527 0.0
-11.1985 -8.79943 0.0
6.5495 -9.01043 0.0
1.93063 2.73727 0.0
8.06638 0.218989 0.0
8.44074 8.9816 0.0
-8.99668 4.79797 0.0
-12.8189 7.23235 0.0
-12.8933 -7.30447 0.0
-0.323906 5.37611 0.0
-8.7699 -4.75802 0.0
-11.1386 1.78719 0.0
4.42411 -6.75367 0.0
13.0126 -7.36924 0.0
-7.48515 1.72267 0.0
11.3277 -3.84923 0.0
-8.87407 0.814342 0.0
2.22938 -2.38252 0.0
-5.67065 -7.35279 0.0
0.550374 -7.08193 0.0
-4.51607 5.33014 0.0
4.70024 7.41885 0.0
6.48781 0.461394 0.0
6.80693 -3.29907 0.0
-10.9395 7.5798 0.0
8.1315 -7.19818 0.0
2.74395 3.65848 0.0
11.3939 1.68449 0.0
-4.7316 -5.09487 0.0
3.4143 -9.06247 0.0
-10.0403 -5.59724 0.0
8.86062 -2.13845 0.0
1.39635 -1.3093 0.0
3.45078 -2.16841 0.0
11.0745 -1.66835 0.0
-5.61914 7.68413 0.0
5.92676 -0.375638 0.0
-0.309132 8.92337 0.0
6.51243 -6.25027 0.0
6.76127 7.78004 0.0
4.57061 0.118342 0.0
11.0562 7.56638 0.0
11.3991 -9.05048 0.0
-3.40483 7.30262 0.0
8.62256 7.12762 0.0
1.56414 9.08846 0.0
-11.481 -6.96054 0.0
-0.516315 -0.163532 0.0
-0.714322 -4.47921 0.0
-3.28196 -2.69597 0.0
3.01691 -7.48188 0.0
11.453 9.04892 0.0
-5.88938 -3.48568 0.0
9.90097 -7.24247 0.0
-1.5521 -1.72771 0.0
-5.91208 0.255359 0.0
-12.9346 -4.24569 0.0
-5.35047 -1.67495 0.0
-3.86951 1.56671 0.0
-0.531063 1.93715 0.0
-0.445308 -9.0427 0.0
-11.7997 -2.32471 0.0
1.18619 -4.90869 0.0
-4.47187 9.07117 0.0
9.68901 8.96519 0.0
-6.64173 5.85179 0.0
6.72641 4.91089 0.0
-2.08166 -8.88838 0.0
2.5788 -4.01966 0.0
-1.63595 3.38993 0.0
9.57725 7.20128 0.0
12.9693 -8.96925 0.0
7.0798 -1.52687 0.0
2.17 6.32635 0.0
-0.258195 7.69239 0.0
-8.60226 6.48217 0.0
-1.85906 -5.85209 0.0
1.35356 0.411091 0.0
-7.0015 3.6814 0.0
6.23514 -4.39312 0.0
10.0006 2.22661 0.0
9.99577 5.59584 0.0
13.1544 -5.63182 0.0
-3.17441 2.42767 0.0
9.88599 -5.31514 0.0
0.459836 3.6875 0.0
-1.4533 1.36343 0.0
8.56312 3.33297 0.0
-13.0779 -1.15709 0.0
-6.12019 -5.70535 0.0
7.96299 -4.95951 0.0
8.38922 -8.96264 0.0
-10.0535 -7.38964 0.0
-11.4217 6.12803 0.0
3.3564 9.10303 0.0
11.9315 -7.29268 0.0
-2.04833 -7.33298 0.0
[...]
CELL_DATA 5728
SCALARS U_Initial double 1
LOOKUP_TABLE default
0.0423363
0.0400083
0.0548954
0.0266509
0.0236571
0.0315677
0.0487912
0.0263665
0.000831761
0.000851239
0.00121379
0.000592507
0.00271108
0.00457791
0.007709
0.00441834
0.00382133
0.00425007
0.00742008
0.00261269
0.00128353
0.000963339
0.00124519
0.000543265
0.000959605
0.000572058
0.000454077
0.00041828
0.0118867
0.0173701
0.0187321
0.0227614
1.75275e-05
1.88453e-05
1.03704e-05
3.55684e-05
7.35537e-05
5.02344e-05
2.86284e-05
5.80742e-05
7.21399e-09
4.96702e-09
1.78352e-09
9.14342e-09
0.00699286
0.00960391
0.013903
0.00884389
0.000246477
0.00038546
0.000558846
0.000400297
6.16877e-06
6.42472e-06
2.87584e-06
1.43214e-05
4.99194e-07
5.19789e-07
2.00946e-07
1.34445e-06
0.177892
0.132364
0.119935
0.103496
0.0479764
0.0687376
0.0745806
0.0864286
3.19779e-06
3.56177e-06
1.73756e-06
7.83789e-06
0.0061612
0.00568855
0.00316745
0.00901833
3.37436e-11
7.99111e-11
3.18851e-10
4.53484e-11
0.00169542
0.00305955
0.00499337
0.0032509
0.000132175
0.000216949
0.000290405
0.000255236
0.000927009
0.000574831
0.000415733
0.00047252
7.31329e-06
1.58383e-05
1.8911e-05
2.77182e-05
0.00121
0.00137124
0.0026285
0.000778759
0.00207844
0.00180095
0.000895303
0.00300597
0.00685513
0.00983943
0.00922954
0.014611
5.51297e-07
5.49105e-07
1.38128e-06
2.07159e-07
0.0373875
0.048929
0.042605
0.0714113
1.10925e-14
4.74927e-14
6.15315e-14
1.50805e-13
0.00127429
0.00191238
0.00197395
0.00269929
0.00816649
0.0048703
0.0043049
0.00316158
9.73209e-10
1.62314e-09
1.02108e-09
4.12105e-09
0.0357147
0.037767
0.0262071
0.0549849
5.77842e-06
8.78282e-06
5.44995e-06
2.06585e-05
1.78667e-12
1.15477e-12
2.12657e-12
3.90136e-13
7.88592e-09
3.96865e-09
5.18407e-09
1.46688e-09
5.30453e-06
1.37017e-05
2.4351e-05
1.90859e-05
0.0375178
0.056727
0.0718884
0.0650601
8.65017e-07
1.314e-06
2.8816e-06
8.82144e-07
7.657e-06
6.30646e-06
2.67727e-06
1.16981e-05
0.027795
0.0271351
0.0195551
0.0354211
0.100175
0.0775107
0.076258
0.0590228
4.90109e-06
7.11547e-06
4.05759e-06
1.73522e-05
5.2251e-06
3.20346e-06
4.48796e-06
1.35521e-06
4.54688e-11
1.44452e-10
1.48344e-10
4.27625e-10
2.29344e-07
3.1264e-07
6.14752e-07
2.09989e-07
0.22057
0.241758
0.205549
0.30219
2.476e-09
1.44542e-09
5.16911e-10
2.27887e-09
1.66767e-10
7.31242e-11
3.56281e-11
6.37935e-11
8.85796e-09
4.82313e-09
4.82842e-09
2.53349e-09
1.20448e-09
1.08678e-09
2.29182e-09
4.47082e-10
1.41312e-09
2.26408e-09
5.70663e-09
1.38732e-09
8.80752e-12
2.35635e-11
7.67894e-11
1.84675e-11
3.16363e-10
1.40713e-10
4.5178e-11
1.87107e-10
3.02908e-05
4.42663e-05
3.42703e-05
8.09804e-05
0.318719
0.385344
0.468307
0.369135
0.657532
0.578283
0.572218
0.490995
0.206502
0.234686
0.279142
0.217049
1.48476e-09
5.18841e-10
2.93723e-10
3.09397e-10
0.00181072
0.00349096
0.00422807
0.00533599
1.78338e-09
4.45515e-09
6.28818e-09
7.63702e-09
0.0024344
0.00421245
0.00480519
0.00612985
2.06967e-13
3.25141e-13
1.12797e-12
1.42e-13
0.167829
0.155179
0.176767
0.121551
4.93458e-14
4.24223e-14
1.04599e-14
1.42669e-13
4.31084e-06
9.06885e-06
8.40627e-06
1.9806e-05
0.00158793
0.00289947
0.00499558
0.00292473
1.18188e-08
4.2571e-09
2.80766e-09
2.22498e-09
2.22531e-06
3.39504e-06
8.57185e-06
1.96557e-06
0.016528
0.011428
0.00790521
0.0109513
0.0935313
0.13549
0.154034
0.165563
5.56429e-05
9.17988e-05
0.000171331
7.81736e-05
1.01494e-05
4.99235e-06
3.19866e-06
3.70179e-06
0.00829146
0.00659249
0.00971332
0.00340643
0.00426806
0.00270884
0.00207489
0.00216946
0.00209003
0.00191836
0.00312873
0.0010377
0.00260844
0.00214163
0.0010959
0.00330622
0.0382357
0.0515805
0.0490053
0.0703144
0.0418017
0.0608558
0.0795097
0.0656739
6.82645e-10
1.33422e-09
3.45518e-09
9.72812e-10
1.02466e-05
1.18023e-05
2.60308e-05
5.89014e-06
2.37681e-05
1.79505e-05
7.26334e-06
3.20839e-05
0.000347506
0.000492127
0.00100842
0.000325368
0.000791085
0.000737117
0.000399025
0.00122713
1.44301e-06
3.96487e-06
6.02219e-06
6.87237e-06
0.335882
0.298536
0.228443
0.335856
3.73763e-10
3.69063e-10
1.43524e-10
9.10945e-10
0.729918
0.716167
0.763725
0.636137
5.88442e-07
6.6839e-07
3.3422e-07
1.45925e-06
1.63131e-14
3.43065e-14
4.21921e-14
5.65584e-14
5.65584e-14
3.43065e-14
4.21921e-14
1.63131e-14
0.00113602
0.00139185
0.00219966
0.00104752
4.83579e-06
1.00981e-05
9.98355e-06
2.06044e-05
4.44021e-06
5.43293e-06
1.31883e-05
2.63649e-06
5.11445e-11
1.81613e-10
3.93009e-10
2.85793e-10
1.79502e-08
2.06732e-08
4.03231e-08
1.18253e-08
0.0075359
0.0054744
0.00548139
0.00385322
0.00256707
0.00158634
0.0009963
0.00149366
0.000310705
0.000550999
0.000880851
0.000586333
0.00197548
0.00268861
0.00194094
0.00489586
1.09802e-07
7.14671e-08
1.00348e-07
3.20133e-08
6.05651e-06
1.08936e-05
1.16213e-05
1.7736e-05
0.0727982
0.0823516
0.0607017
0.120515
6.85722e-10
1.17364e-09
8.0847e-10
2.85213e-09
0.00283074
0.00214596
0.00123558
0.002745
1.88846e-07
2.84351e-07
1.90378e-07
6.16276e-07
1.26021e-06
7.34419e-07
9.91493e-07
3.056e-07
0.00500309
0.00728058
0.0077015
0.00969766
0.136008
0.15983
0.140587
0.207638
1.13217e-06
2.47175e-06
2.80982e-06
4.5378e-06
0.0163377
0.01695
0.0120466
0.0239137
0.0270219
0.0218041
0.0271386
0.0136567
0.232359
0.205611
0.154432
0.235322
0.00120676
0.00141798
0.00100183
0.00230292
0.000254197
0.000208148
0.000361853
9.40122e-05
0.525928
0.505088
0.420499
0.561081
7.37466e-05
9.34534e-05
0.000170568
6.27318e-05
0.0340747
0.0407858
0.061039
0.0312993
0.0310673
0.0388955
0.0305889
0.0595243
0.452285
0.372816
0.305958
0.360838
3.08205e-06
3.49098e-06
7.73808e-06
1.72358e-06
0.00669156
0.00878673
0.00743693
0.0132775
4.86347e-06
6.9754e-06
1.41734e-05
4.72367e-06
6.38538e-05
0.000121408
0.000136636
0.00019749
1.4037e-13
2.11139e-13
1.04894e-13
6.11639e-13
4.75865e-13
1.85841e-13
9.83793e-14
1.31594e-13
0.0109325
0.00756934
0.00472033
0.00806002
0.304476
0.350445
0.306652
0.445325
3.86753e-12
1.43658e-11
2.04573e-11
3.58735e-11
0.0034469
0.00482484
0.00817208
0.003862
7.34163e-13
2.07255e-12
6.00484e-12
1.9569e-12
8.10085e-13
2.51565e-12
2.19202e-12
8.62092e-12
0.342496
0.395593
0.493823
0.353027
0.0211404
0.0149969
0.0139289
0.0110563
5.51746e-05
9.6186e-05
7.40233e-05
0.000208946
0.00153608
0.00271635
0.00257284
0.00483529
8.37072e-05
0.000149545
0.000154611
0.000247881
0.0428992
0.0644949
0.0783547
0.0766446
0.372602
0.466333
0.49234
0.534613
2.73256e-08
2.30485e-08
4.07399e-08
1.06122e-08
0.265105
0.22698
0.248385
0.171137
0.118457
0.152167
0.140137
0.203648
1.22935e-13
2.63646e-13
5.24162e-13
2.74212e-13
0.000579565
0.000364098
0.000407624
0.000198509
0.000134194
0.000175138
0.000137633
0.000282751
4.0012e-09
1.38545e-09
8.86444e-10
7.26913e-10
0.0381017
0.0389491
0.0558834
0.0265726
1.86581e-08
4.18012e-08
4.21027e-08
8.9615e-08
6.68057e-13
1.71375e-12
1.32766e-12
5.46719e-12
1.45137e-12
2.05116e-12
7.32652e-13
7.77995e-12
0.155846
0.206223
0.231214
0.236768
0.0223747
0.0177084
0.0195399
0.012397
6.27358e-14
3.61317e-14
4.32843e-14
1.67475e-14
5.70852e-05
4.18388e-05
5.37705e-05
2.31109e-05
4.66985e-06
2.35044e-06
1.64055e-06
1.63221e-06
6.50628e-13
1.4821e-12
1.24544e-12
3.84064e-12
0.0364619
0.0356602
0.0223171
0.0530021
5.49159e-13
2.07541e-13
1.03936e-13
1.50302e-13
3.21807e-07
4.02642e-07
9.69894e-07
2.02464e-07
4.30425e-07
4.65947e-07
2.17706e-07
1.04413e-06
1.41303e-06
6.93583e-07
2.97675e-07
7.65421e-07
2.16753e-09
5.36006e-09
7.83968e-09
8.78983e-09
0.121912
0.0952992
0.0938836
0.0729331
1.81778e-09
1.76864e-09
8.42398e-10
3.50741e-09
1.45339e-09
4.68631e-10
3.40661e-10
1.9978e-10
1.4399e-12
1.98534e-12
9.74717e-13
5.34437e-12
1.0478e-05
6.82046e-06
3.19849e-06
9.15946e-06
7.4026e-08
1.13175e-07
8.82484e-08
2.15528e-07
0.0673245
0.0487074
0.0314246
0.0521547
1.95804e-08
3.60823e-08
5.26908e-08
4.43644e-08
8.22225e-06
4.20537e-06
3.47384e-06
2.51467e-06
0.00118511
0.00151701
0.00101037
0.00280533
0.00145262
0.00167817
0.00295238
0.00106162
0.508839
0.470275
0.496537
0.396575
0.31385
0.250031
0.213419
0.225404
3.84789e-09
1.77304e-09
7.67143e-10
1.81287e-09
8.20811e-08
4.44713e-08
5.36242e-08
1.92628e-08
5.93966e-09
1.19671e-08
9.9798e-09
2.78575e-08
1.4137e-08
2.89819e-08
4.46123e-08
3.74962e-08
0.00943152
0.00650612
0.00365684
0.00768367
0.00241223
0.00387472
0.00364049
0.00637689
0.0100833
0.00790813
0.0090946
0.00520522
8.394e-08
1.28871e-07
9.95562e-08
2.48838e-07
6.22316e-05
0.000108316
0.000152982
0.000129041
6.04424e-05
7.70408e-05
4.53988e-05
0.000160698
2.06553e-06
1.16974e-06
4.33906e-07
1.71799e-06
4.56751e-06
8.91796e-06
1.64836e-05
9.05029e-06
1.92963e-06
3.04146e-06
2.66495e-06
5.28168e-06
2.21253e-06
8.41873e-07
4.02225e-07
6.43388e-07
4.68521e-06
2.46704e-06
2.69532e-06
1.13291e-06
2.81731e-07
6.0441e-07
5.60643e-07
1.33375e-06
5.77294e-10
1.75689e-10
1.25272e-10
7.16804e-11
0.0141967
0.0128357
0.0160995
0.0089727
0.0744556
0.0865773
0.126172
0.0664416
0.119333
0.11004
0.0749105
0.142517
0.000514672
0.000311476
0.000219003
0.0002592
0.13391
0.138725
0.187248
0.102346
3.38039e-06
1.97879e-06
9.86233e-07
2.25449e-06
0.00670467
0.0080812
0.01222
0.00624181
0.125234
0.110493
0.0807932
0.130029
1.92426e-05
4.14515e-05
7.31498e-05
4.86001e-05
5.04308e-05
3.14692e-05
3.02731e-05
1.96792e-05
0.943582
0.901441
0.845564
0.886439
6.22313e-06
1.22881e-05
1.89258e-05
1.51779e-05
0.0605961
0.0577477
0.0772322
0.0397938
0.060686
0.0576111
0.0396683
0.0771732
1.60571e-08
3.10015e-08
7.70596e-08
2.3361e-08
0.000726298
0.000871918
0.000626588
0.00140988
5.16884e-09
2.21325e-09
2.02775e-09
9.95938e-10
0.0509263
0.040778
0.030056
0.0427845
1.74328e-09
6.78593e-10
2.40596e-10
7.21282e-10
4.09701e-05
8.11476e-05
0.000109848
0.000114779
2.80692e-08
1.10059e-08
6.27505e-09
7.34189e-09
0.133636
0.152414
0.129294
0.199299
0.0101308
0.0074357
0.00821426
0.00479706
0.108114
0.0822739
0.0720819
0.0696882
6.09159e-05
0.000117592
0.000231316
0.000110742
0.000434587
0.000313118
0.000180863
0.000376552
0.0191712
0.0129129
0.00802894
0.0134886
0.152967
0.109866
0.0827054
0.100622
0.590148
0.630386
0.708892
0.57463
3.45063e-09
1.3431e-09
6.85851e-10
9.98741e-10
6.01502e-09
3.97878e-09
1.50884e-09
6.74524e-09
0.000138187
0.000214472
0.000371158
0.000185047
5.33274e-06
9.90748e-06
1.30635e-05
1.34861e-05
0.000922713
0.000981133
0.00170188
0.000573748
1.95766e-07
3.43802e-07
2.57155e-07
7.7682e-07
2.74282e-06
1.29591e-06
1.50905e-06
5.00721e-07
1.10485e-06
2.35351e-06
5.30768e-06
2.15449e-06
0.000175707
0.000101089
8.86582e-05
6.41618e-05
0.00268473
0.00168748
0.00104637
0.00164507
0.0021698
0.00340169
0.00435975
0.00403849
2.56696e-12
6.39468e-12
4.50473e-12
2.17197e-11
0.0218177
0.0142178
0.0110337
0.0115212
0.000273494
0.000207652
0.000126677
0.000251965
1.84247e-06
9.31518e-07
1.08965e-06
3.87359e-07
1.10055e-08
2.85868e-08
4.54656e-08
4.4483e-08
0.006741
0.00439537
0.0042777
0.00286288
2.52759e-10
2.17818e-10
7.50102e-11
5.24363e-10
7.21941e-07
3.84048e-07
1.54419e-07
4.92427e-07
8.07879e-05
0.000139125
0.00023882
0.000134088
1.67103e-05
1.61845e-05
3.24796e-05
7.51234e-06
4.64405e-12
6.83115e-12
2.66016e-12
2.47762e-11
7.41662e-09
1.29453e-08
2.97629e-08
9.48555e-09
0.0330919
0.0245976
0.0234004
0.0186568
0.00211965
0.00181699
0.00253027
0.00108803
0.000591322
0.000958147
0.00123771
0.00116018
2.32367e-14
6.85421e-14
5.91755e-14
2.25837e-13
0.000668422
0.000693599
0.000456081
0.00105704
9.8054e-07
1.84504e-06
1.50286e-06
4.11405e-06
2.5602e-10
4.26189e-10
3.06205e-10
9.55144e-10
4.14771e-05
2.94524e-05
3.50887e-05
1.70634e-05
3.29697e-10
7.0693e-10
2.03064e-09
5.03772e-10
0.00210869
0.00351507
0.00469044
0.00425249
1.55707e-05
1.17357e-05
5.67093e-06
1.76911e-05
3.27231e-11
5.21926e-11
2.73229e-11
1.53428e-10
2.97839e-05
2.15947e-05
8.67254e-06
3.75284e-05
6.57639e-05
4.07516e-05
3.6027e-05
2.76365e-05
9.83291e-13
2.95335e-13
1.53441e-13
1.65375e-13
1.52982e-12
4.47285e-13
2.03647e-13
2.78674e-13
0.0936556
0.0678018
0.055183
0.058522
0.0152136
0.00931618
0.00693982
0.00733087
0.00197927
0.00334954
0.00437746
0.00417189
0.53673
0.510488
0.561406
0.426283
0.000200274
0.00012043
5.69179e-05
0.000147964
0.0135248
0.0114378
0.00740621
0.0145511
5.93568e-05
3.77864e-05
2.66454e-05
3.3079e-05
1.19886e-13
8.29843e-14
3.03833e-14
1.53274e-13
8.43891e-06
5.33984e-06
6.81636e-06
2.5555e-06
1.30726e-06
2.09875e-06
1.60063e-06
4.27432e-06
5.69909e-13
3.12813e-13
1.34067e-13
3.87014e-13
0.00150873
0.000917294
0.000771086
0.000646967
0.0155543
0.0109818
0.0107155
0.00772224
0.0253583
0.0172018
0.0125232
0.0154201
0.000493275
0.000986505
0.00131535
0.00142194
2.62548e-05
4.00049e-05
2.80399e-05
8.41168e-05
0.00198837
0.00212831
0.0029761
0.0015938
1.25166e-07
1.19056e-07
5.23873e-08
2.47816e-07
5.80055e-11
1.60884e-10
3.81892e-10
1.81396e-10
0.000431454
0.000508084
0.000842667
0.000348885
2.71409e-07
2.85801e-07
1.33557e-07
6.21915e-07
8.61591e-05
7.24919e-05
0.000113214
3.77572e-05
2.3564e-11
1.73163e-11
3.83745e-11
5.55553e-12
5.17543e-12
8.1633e-12
3.81501e-12
2.64219e-11
0.0247951
0.018306
0.0130606
0.0182471
0.11548
0.148458
0.171986
0.15943
1.8449e-12
6.50002e-13
3.35904e-13
4.29602e-13
1.10536e-07
7.4117e-08
1.05073e-07
3.39152e-08
3.59435e-05
3.6223e-05
7.48007e-05
1.70311e-05
1.97661e-06
2.89136e-06
4.59365e-06
2.5931e-06
1.5639e-05
2.74839e-05
2.15481e-05
5.95503e-05
5.03764e-08
7.79e-08
1.22532e-07
7.44895e-08
0.017188
0.0119455
0.0121964
0.00785299
0.00420875
0.00589082
0.00551822
0.00854465
1.40472e-05
2.06731e-05
1.62581e-05
3.76931e-05
1.28739e-10
1.08437e-10
3.9251e-11
2.42924e-10
9.75265e-07
4.71234e-07
5.59317e-07
1.8436e-07
0.0136475
0.0179362
0.0256312
0.0158163
4.73345e-05
4.78242e-05
7.85144e-05
2.84416e-05
0.00022194
0.000201105
9.8988e-05
0.000354179
0.000176087
0.000178045
0.000333591
9.27639e-05
0.554026
0.644453
0.642851
0.727699
4.30018e-07
5.32457e-07
1.15963e-06
2.92264e-07
1.03462e-08
8.84776e-09
1.59749e-08
4.04604e-09
8.60589e-07
6.49923e-07
3.59402e-07
8.58949e-07
1.50939e-14
2.05349e-14
7.23599e-15
7.6624e-14
4.19499e-08
4.15216e-08
1.8596e-08
8.85123e-08
0.00144019
0.0014946
0.00268596
0.000825892
0.16887
0.156565
0.109154
0.198642
0.000754024
0.000553717
0.000351033
0.000626165
1.25514e-06
5.41857e-07
4.6747e-07
2.6177e-07
0.000689968
0.000445208
0.000442322
0.000279822
0.280678
0.222899
0.217667
0.176131
1.81943e-11
1.03015e-11
4.3656e-12
1.33684e-11
1.93928e-11
1.22785e-11
1.90036e-11
4.84763e-12
4.64298e-05
2.23567e-05
1.6329e-05
1.4249e-05
0.0833445
0.0669844
0.0498931
0.0705361
8.10446e-09
5.42766e-09
2.1481e-09
8.8399e-09
2.04514e-10
5.81747e-11
3.21411e-11
2.88567e-11
4.24553e-15
1.89771e-14
3.43099e-14
4.52962e-14
6.7536e-05
4.73825e-05
6.40229e-05
2.37903e-05
0.634795
0.546388
0.478179
0.520971
1.23341e-07
5.82128e-08
2.5825e-08
5.98467e-08
5.36452e-09
1.52742e-08
2.72077e-08
2.36351e-08
9.25936e-07
5.89865e-07
8.19048e-07
2.60898e-07
1.19816e-07
2.12497e-07
1.56713e-07
4.9158e-07
0.00707917
0.0104335
0.0149909
0.0104108
0.00097343
0.00103104
0.00159835
0.000686551
4.04654e-10
1.07058e-09
1.16946e-09
2.49799e-09
1.65467e-12
8.3416e-13
2.77975e-13
1.21702e-12
2.12674e-12
8.61021e-13
1.02518e-12
2.82502e-13
6.94465e-10
9.67083e-10
2.83961e-09
4.42118e-10
2.26545e-09
1.7447e-09
5.93826e-10
3.81194e-09
4.94804e-07
9.51447e-07
1.13387e-06
1.48947e-06
9.00122e-08
3.08917e-08
1.6807e-08
1.87918e-08
4.0662e-09
8.77724e-09
7.7919e-09
2.06355e-08
0.00147499
0.00235866
0.00357098
0.0024168
1.08672e-12
3.02982e-13
1.80718e-13
1.37155e-13
0.0246338
0.0254289
0.016379
0.038862
5.16853e-06
7.93686e-06
5.49561e-06
1.70004e-05
0.250423
0.23905
0.290548
0.182463
1.79235e-06
1.17797e-06
1.55913e-06
5.64557e-07
3.44599e-05
3.55457e-05
1.68676e-05
7.41949e-05
3.83168e-09
1.60841e-09
1.10994e-09
9.55843e-10
9.04788e-08
7.35338e-08
3.59772e-08
1.18639e-07
0.00619469
0.00365571
0.00252093
0.00302204
0.000148365
0.000223168
0.000424215
0.000170842
4.30189e-08
8.09331e-08
5.81843e-08
2.04846e-07
4.7547e-11
1.04214e-10
2.57855e-10
8.88019e-11
1.38471e-09
5.6224e-10
2.06135e-10
5.99212e-10
0.159466
0.120265
0.122006
0.0865873
0.125335
0.100445
0.0747904
0.104189
0.000153102
0.000250257
0.000422122
0.000235693
0.000105602
0.000105164
0.000184298
5.78783e-05
0.0003549
0.000394977
0.000247102
0.000678671
7.83673e-06
1.27054e-05
1.24549e-05
2.03017e-05
2.97482e-07
2.15811e-07
3.2105e-07
1.02257e-07
0.000593128
0.000434375
0.000556316
0.000238443
0.00947997
0.00863834
0.0109439
0.00599361
0.00363036
0.00532706
0.00471538
0.00856333
3.64417e-12
2.52645e-12
8.47831e-13
5.01539e-12
1.28989e-12
5.08835e-13
4.92003e-13
2.01415e-13
9.63494e-05
0.00011877
0.000187309
9.03078e-05
2.37085e-11
3.99785e-11
2.88468e-11
9.05164e-11
4.97332e-15
9.69708e-15
6.40973e-15
2.78865e-14
5.9219e-08
9.62235e-08
6.83018e-08
2.14238e-07
5.49398e-06
1.29358e-05
2.22123e-05
1.71184e-05
0.00117784
0.00110225
0.000607869
0.00179955
3.08207e-12
2.89307e-12
6.45781e-12
1.17314e-12
1.56438e-08
2.78352e-08
2.07987e-08
6.42917e-08
1.825e-07
3.01195e-07
6.09318e-07
2.38085e-07
4.60806e-11
1.48427e-10
2.22077e-10
3.06867e-10
0.0858486
0.0802911
0.0572434
0.101787
0.0470158
0.0594313
0.087602
0.0492375
0.145657
0.181409
0.22231
0.180661
0.611904
0.672087
0.743829
0.64724
0.810873
0.771649
0.692802
0.796807
8.30521e-08
1.63051e-07
1.75344e-07
2.88192e-07
6.80203e-09
1.16042e-08
7.44401e-09
2.99443e-08
1.26409e-08
1.5049e-08
7.74913e-09
3.4005e-08
1.05388e-07
1.53378e-07
3.18866e-07
1.02797e-07
1.36932e-07
1.13498e-07
4.45577e-08
2.3113e-07
9.28983e-08
9.35431e-08
2.10086e-07
4.04149e-08
1.32715e-07
2.1138e-07
4.23481e-07
1.63518e-07
6.59629e-06
1.29717e-05
2.17296e-05
1.47911e-05
0.0804997
0.0601068
0.0578728
0.045045
0.016981
0.0130455
0.00839868
0.01515
0.00129001
0.00110003
0.000574186
0.0017322
0.00020489
0.000187554
8.92101e-05
0.000344226
0.64087
0.746074
0.804596
0.772658
7.99782e-07
3.12261e-07
1.4882e-07
2.46585e-07
2.87024e-07
2.08299e-07
3.2755e-07
9.34827e-08
1.58712e-07
2.73494e-07
2.09446e-07
5.91779e-07
0.00258956
0.00159138
0.000998477
0.0015183
0.00178441
0.00172563
0.00104165
0.00269195
2.62738e-15
7.39813e-15
2.638e-14
5.6345e-15
3.08269e-15
1.01322e-14
1.0602e-14
3.07685e-14
3.98459e-12
1.52341e-11
3.39746e-11
2.50065e-11
0.00206832
0.00285048
0.00278496
0.00393684
8.42247e-12
2.24158e-11
3.18385e-11
4.06259e-11
3.32277e-09
2.60182e-09
4.25148e-09
1.20661e-09
0.000118568
6.27065e-05
3.87748e-05
5.14425e-05
4.53129e-09
1.70167e-09
8.72645e-10
1.20324e-09
0.0342484
0.0393221
0.0282484
0.0603497
1.84263e-12
8.7063e-13
1.12713e-12
3.0663e-13
0.0158383
0.0240296
0.0257297
0.0328307
0.0640441
0.0483003
0.0465336
0.0364804
0.92315
0.870565
0.835734